 Gaussian 09, Revision C.01,
 Gaussian 09:  EM64L-G09RevC.01 23-Sep-2011

 -------------------
 #HF STO-3G opt freq
 -------------------

 99/9=1/99;
 --------------------
 Ammonia optimization
 --------------------
 Charge =  0 Multiplicity = 1

 SCF Done:  E(RHF) =  -55.2314424349     A.U. after   10 cycles
 SCF Done:  E(RHF) =  -55.3104224559     A.U. after    9 cycles
 SCF Done:  E(RHF) =  -55.4313235281     A.U. after    9 cycles
 SCF Done:  E(RHF) =  -55.4542009874     A.U. after    9 cycles
 SCF Done:  E(RHF) =  -55.4547851173     A.U. after    8 cycles
 SCF Done:  E(RHF) =  -55.4550351824     A.U. after    8 cycles
 SCF Done:  E(RHF) =  -55.4554179066     A.U. after    7 cycles
 SCF Done:  E(RHF) =  -55.4554197503     A.U. after    6 cycles
 Optimization completed.
    -- Stationary point found.
 Normal termination of Gaussian 09 at Tue Sep  4 18:27:17 2018.

 ---------------------------------------------------------------
 #N Geom=AllCheck Guess=TCheck SCRF=Check GenChk RHF/STO-3G Freq
 ---------------------------------------------------------------

 Structure from the checkpoint file:  /scratch/cn410101.134352/Gau-62079.chk
 --------------------
 Ammonia optimization
 --------------------
 Charge =  0 Multiplicity = 1

                         Standard orientation:
 ---------------------------------------------------------------------
 Center     Atomic      Atomic             Coordinates (Angstroms)
 Number     Number       Type             X           Y           Z
 ---------------------------------------------------------------------
      1          7           0        0.000000    0.127881    0.000000
      2          1           0        0.470184   -0.298378    0.814463
      3          1           0       -0.940368   -0.298413    0.000000
      4          1           0        0.470184   -0.298378   -0.814463
 ---------------------------------------------------------------------

 SCF Done:  E(RHF) =  -55.4554197503     A.U. after    1 cycles

 The electronic state is 1-A'.
 Alpha  occ. eigenvalues --  -15.31284  -1.08676  -0.56152  -0.56151  -0.35858
 Alpha virt. eigenvalues --    0.62508   0.70013   0.70014

 Mulliken atomic charges:
              1
     1  N   -0.440616
     2  H    0.146870
     3  H    0.146877
     4  H    0.146870
 Sum of Mulliken atomic charges =   0.00000

 Dipole moment (field-independent basis, Debye):
    X=              0.0000    Y=             -1.8766    Z=              0.0000  Tot=              1.8766
 Quadrupole moment (field-independent basis, Debye-Ang):
   XX=             -5.9917   YY=             -7.6411   ZZ=             -5.9913
   XY=              0.0001   XZ=              0.0000   YZ=              0.0000

  Exact polarizability:   5.557   0.000   1.428   0.000   0.000   5.558
 Approx polarizability:   4.182   0.000   1.549   0.000   0.000   4.183

                     1                      2                      3
                    A'                     A'                     A"
 Frequencies --  1412.7061              2076.4449              2076.4899
 Red. masses --     1.1777                 1.0590                 1.0590
 Frc consts  --     1.3848                 2.6901                 2.6902
 IR Inten    --    80.6795                 1.6643                 1.6642
 Raman Activ --     4.8523                13.2509                13.2508

                     4                      5                      6
                    A'                     A"                     A'
 Frequencies --  3833.5485              4108.1651              4108.4851
 Red. masses --     1.0290                 1.0894                 1.0894
 Frc consts  --     8.9094                10.8326                10.8342
 IR Inten    --     8.0052                 5.0476                 5.0504
 Raman Activ --    55.8314                24.0907                24.0917

 - Thermochemistry -
 -------------------
 Temperature   298.150 Kelvin.  Pressure   1.00000 Atm.
 Atom     1 has atomic number  7 and mass  14.00307

 Molecular mass:    17.02655 amu.
 Principal axes and moments of inertia in atomic units:
                           1         2         3
     Eigenvalues --     6.38738   6.38832   9.54867
           X            0.00000   1.00000  -0.00004
           Y            0.00000   0.00004   1.00000
           Z            1.00000   0.00000   0.00000
 This molecule is an asymmetric top.
 Rotational symmetry number  1.
 Rotational temperatures (Kelvin)     13.56015    13.55815     9.07078
 Rotational constants (GHZ):         282.54809   282.50637   189.00456
 Zero-point vibrational energy     105366.1 (Joules/Mol)
                                   25.18311 (Kcal/Mol)
 Vibrational temperatures:   2032.57  2987.54  2987.60  5515.61  5910.73
          (Kelvin)           5911.19

 Zero-point correction=                           0.040132 (Hartree/Particle)
 Thermal correction to Energy=                    0.042972
 Thermal correction to Enthalpy=                  0.043916
 Thermal correction to Gibbs Free Energy=         0.021020
 Sum of electronic and zero-point Energies=            -55.415288
 Sum of electronic and thermal Energies=               -55.412447
 Sum of electronic and thermal Enthalpies=             -55.411503
 Sum of electronic and thermal Free Energies=          -55.434400

                     E (Thermal)             CV                S
                      KCal/Mol        Cal/Mol-Kelvin    Cal/Mol-Kelvin
 Total                   26.966              6.081             48.190
 Electronic               0.000              0.000              0.000
 Translational            0.889              2.981             34.441
 Rotational               0.889              2.981             13.730
 Vibrational             25.188              0.119              0.019

 Optimization completed.
    -- Stationary point found.
 Normal termination of Gaussian 09 at Tue Sep  4 18:27:18 2018.
