 Gaussian 09, Revision C.01,
 Gaussian 09:  EM64L-G09RevC.01 23-Sep-2011

 -------------------
 #HF STO-3G opt freq
 -------------------

 99/9=1/99;
 ----------------
 H2S optimization
 ----------------
 Charge =  0 Multiplicity = 1

 SCF Done:  E(RHF) =  -788.049732002     A.U. after    8 cycles
 SCF Done:  E(RHF) =  -788.316519354     A.U. after    8 cycles
 SCF Done:  E(RHF) =  -788.566566409     A.U. after    9 cycles
 SCF Done:  E(RHF) =  -788.616746527     A.U. after   10 cycles
 SCF Done:  E(RHF) =  -788.621381832     A.U. after    8 cycles
 SCF Done:  E(RHF) =  -788.622518400     A.U. after    9 cycles
 SCF Done:  E(RHF) =  -788.623270029     A.U. after    9 cycles
 SCF Done:  E(RHF) =  -788.623947017     A.U. after    8 cycles
 SCF Done:  E(RHF) =  -788.624160975     A.U. after    7 cycles
 SCF Done:  E(RHF) =  -788.624233169     A.U. after    7 cycles
 SCF Done:  E(RHF) =  -788.624271715     A.U. after    7 cycles
 SCF Done:  E(RHF) =  -788.624274719     A.U. after    6 cycles
 SCF Done:  E(RHF) =  -788.624279867     A.U. after    6 cycles
 SCF Done:  E(RHF) =  -788.624290994     A.U. after    7 cycles
 SCF Done:  E(RHF) =  -788.624300477     A.U. after    7 cycles
 SCF Done:  E(RHF) =  -788.624301805     A.U. after    7 cycles
 SCF Done:  E(RHF) =  -788.624301941     A.U. after    6 cycles
 SCF Done:  E(RHF) =  -788.624302046     A.U. after    6 cycles
 SCF Done:  E(RHF) =  -788.624302056     A.U. after    6 cycles
 Optimization completed.
    -- Stationary point found.
 Normal termination of Gaussian 09 at Sun Sep  2 21:51:51 2018.

 ---------------------------------------------------------------
 #N Geom=AllCheck Guess=TCheck SCRF=Check GenChk RHF/STO-3G Freq
 ---------------------------------------------------------------

 Structure from the checkpoint file:  /scratch/cn410101.134128/Gau-32348.chk
 ----------------
 H2S optimization
 ----------------
 Charge =  0 Multiplicity = 1

                         Standard orientation:
 ---------------------------------------------------------------------
 Center     Atomic      Atomic             Coordinates (Angstroms)
 Number     Number       Type             X           Y           Z
 ---------------------------------------------------------------------
      1          1           0        1.340968    2.114566    0.000000
      2         16           0        0.012808    2.100972    0.000000
      3          1           0       -0.034603    0.772402    0.000000
      4         16           0        0.012808   -1.995792    0.000000
      5          1           0       -0.858116   -2.284920    0.960781
      6          1           0       -0.858116   -2.284920   -0.960781
 ---------------------------------------------------------------------

 SCF Done:  E(RHF) =  -788.624302056     A.U. after    1 cycles

 The electronic state is 1-A'.
 Alpha  occ. eigenvalues --  -90.75486 -90.73296  -8.65717  -8.63643  -6.28969
 Alpha  occ. eigenvalues --   -6.28754  -6.28410  -6.26899  -6.26680  -6.26334
 Alpha  occ. eigenvalues --   -0.90680  -0.88923  -0.51486  -0.50016  -0.40460
 Alpha  occ. eigenvalues --   -0.38528  -0.28473  -0.26988
 Alpha virt. eigenvalues --    0.46566   0.48440   0.53578   0.55587

 Mulliken atomic charges:
              1
     1  H   -0.038128
     2  S    0.055067
     3  H   -0.025492
     4  S    0.072335
     5  H   -0.031891
     6  H   -0.031891
 Sum of Mulliken atomic charges =   0.00000

 Dipole moment (field-independent basis, Debye):
    X=             -0.3002    Y=             -1.2839    Z=              0.0000  Tot=              1.3185
 Quadrupole moment (field-independent basis, Debye-Ang):
   XX=            -23.6451   YY=            -26.6890   ZZ=            -24.5696
   XY=              4.1233   XZ=              0.0000   YZ=              0.0000

  Exact polarizability:  14.435   3.540  10.622   0.000   0.000  10.250
 Approx polarizability:  13.479   2.615   9.080   0.000   0.000   8.533

                     1                      2                      3
                    A"                     A'                     A'
 Frequencies --    34.5239                56.0557                84.7946
 Red. masses --     1.0318                 5.6746                 1.1089
 Frc consts  --     0.0007                 0.0105                 0.0047
 IR Inten    --    21.8165                 0.2029                30.1660
 Raman Activ --    15.3273                 0.2810                 3.7941

                     4                      5                      6
                    A"                     A'                     A"
 Frequencies --    95.2836               137.4379               200.3202
 Red. masses --     1.0232                 1.1056                 1.0261
 Frc consts  --     0.0055                 0.0123                 0.0243
 IR Inten    --     1.0922                13.3286                17.8098
 Raman Activ --    30.5419                 8.8937                 2.5839

                     7                      8                      9
                    A'                     A'                     A'
 Frequencies --  1605.9895              1610.1780              3272.3405
 Red. masses --     1.0386                 1.0383                 1.0367
 Frc consts  --     1.5783                 1.5860                 6.5403
 IR Inten    --    22.7932                18.6435                 7.4519
 Raman Activ --    25.0689                21.6628               128.4376

                    10                     11                     12
                    A'                     A'                     A"
 Frequencies --  3276.6416              3318.2873              3324.0053
 Red. masses --     1.0366                 1.0400                 1.0400
 Frc consts  --     6.5573                 6.7467                 6.7700
 IR Inten    --    18.3619                 6.6840                 8.2133
 Raman Activ --    62.9219                69.9620                53.1272

 - Thermochemistry -
 -------------------
 Temperature   298.150 Kelvin.  Pressure   1.00000 Atm.
 Atom     1 has atomic number  1 and mass   1.00783

 Molecular mass:    67.97544 amu.
 Principal axes and moments of inertia in atomic units:
                           1         2         3
     Eigenvalues --    17.859101021.661161026.23128
           X            0.02426   0.99971   0.00000
           Y            0.99971  -0.02426   0.00000
           Z            0.00000   0.00000   1.00000
 This molecule is an asymmetric top.
 Rotational symmetry number  1.
 Rotational temperatures (Kelvin)      4.84984     0.08478     0.08440
 Rotational constants (GHZ):         101.05441     1.76648     1.75861
 Zero-point vibrational energy     101777.4 (Joules/Mol)
                                   24.32539 (Kcal/Mol)
 Warning -- explicit consideration of   6 degrees of freedom as
           vibrations may cause significant error
 Vibrational temperatures:     49.67    80.65   122.00   137.09   197.74
          (Kelvin)            288.22  2310.66  2316.68  4708.16  4714.35
                             4774.27  4782.50

 Zero-point correction=                           0.038765 (Hartree/Particle)
 Thermal correction to Energy=                    0.046027
 Thermal correction to Enthalpy=                  0.046971
 Thermal correction to Gibbs Free Energy=         0.006366
 Sum of electronic and zero-point Energies=           -788.585537
 Sum of electronic and thermal Energies=              -788.578275
 Sum of electronic and thermal Enthalpies=            -788.577331
 Sum of electronic and thermal Free Energies=         -788.617936

                     E (Thermal)             CV                S
                      KCal/Mol        Cal/Mol-Kelvin    Cal/Mol-Kelvin
 Total                   28.883             17.689             85.460
 Electronic               0.000              0.000              0.000
 Translational            0.889              2.981             38.567
 Rotational               0.889              2.981             24.441
 Vibrational             27.105             11.728             22.452
 Vibration     1          0.594              1.983              5.551
 Vibration     2          0.596              1.975              4.591
 Vibration     3          0.601              1.960              3.777
 Vibration     4          0.603              1.953              3.549
 Vibration     5          0.614              1.916              2.839
 Vibration     6          0.638              1.839              2.130

 Optimization completed.
    -- Stationary point found.
 Normal termination of Gaussian 09 at Sun Sep  2 21:51:52 2018.
