 Gaussian 09, Revision C.01,
 Gaussian 09:  EM64L-G09RevC.01 23-Sep-2011

 -------------------
 #HF STO-3G opt freq
 -------------------

 99/9=1/99;
 ----------------
 H2S optimization
 ----------------
 Charge =  0 Multiplicity = 1

 SCF Done:  E(RHF) =  -394.305121727     A.U. after    7 cycles
 SCF Done:  E(RHF) =  -394.310286735     A.U. after    7 cycles
 SCF Done:  E(RHF) =  -394.311625066     A.U. after    6 cycles
 SCF Done:  E(RHF) =  -394.311626454     A.U. after    6 cycles
 SCF Done:  E(RHF) =  -394.311630060     A.U. after    6 cycles
 Optimization completed.
    -- Stationary point found.
 Normal termination of Gaussian 09 at Tue Sep  4 18:12:39 2018.

 ---------------------------------------------------------------
 #N Geom=AllCheck Guess=TCheck SCRF=Check GenChk RHF/STO-3G Freq
 ---------------------------------------------------------------

 Structure from the checkpoint file:  /scratch/cn410101.134350/Gau-61110.chk
 ----------------
 H2S optimization
 ----------------
 Charge =  0 Multiplicity = 1

                         Standard orientation:
 ---------------------------------------------------------------------
 Center     Atomic      Atomic             Coordinates (Angstroms)
 Number     Number       Type             X           Y           Z
 ---------------------------------------------------------------------
      1          1           0        0.000000    0.959979   -0.816516
      2         16           0        0.000000    0.000000    0.102064
      3          1           0        0.000000   -0.959979   -0.816516
 ---------------------------------------------------------------------

 SCF Done:  E(RHF) =  -394.311630060     A.U. after    1 cycles

 The electronic state is 1-A1.
 Alpha  occ. eigenvalues --  -90.74542  -8.64793  -6.28045  -6.27828  -6.27478
 Alpha  occ. eigenvalues --   -0.89817  -0.50721  -0.39454  -0.27807
 Alpha virt. eigenvalues --    0.47306   0.54344

 Mulliken atomic charges:
              1
     1  H   -0.036015
     2  S    0.072031
     3  H   -0.036015
 Sum of Mulliken atomic charges =   0.00000

 Dipole moment (field-independent basis, Debye):
    X=              0.0000    Y=              0.0000    Z=             -1.0267  Tot=              1.0267
 Quadrupole moment (field-independent basis, Debye-Ang):
   XX=            -13.2026   YY=            -11.3966   ZZ=            -12.0895
   XY=              0.0000   XZ=              0.0000   YZ=              0.0000

  Exact polarizability:   0.637   0.000   9.648   0.000   0.000   6.852
 Approx polarizability:   0.383   0.000   8.157   0.000   0.000   6.695

                     1                      2                      3
                    A1                     A1                     B2
 Frequencies --  1609.7241              3274.5972              3322.5760
 Red. masses --     1.0386                 1.0367                 1.0399
 Frc consts  --     1.5856                 6.5495                 6.7639
 IR Inten    --    23.0716                17.2314                10.4679
 Raman Activ --    23.8709                76.9153                51.9461

 - Thermochemistry -
 -------------------
 Temperature   298.150 Kelvin.  Pressure   1.00000 Atm.
 Atom     1 has atomic number  1 and mass   1.00783

 Molecular mass:    33.98772 amu.
 Principal axes and moments of inertia in atomic units:
                           1         2         3
     Eigenvalues --     5.71341   6.63340  12.34682
           X            0.00000   0.00000   1.00000
           Y            1.00000   0.00000   0.00000
           Z            0.00000   1.00000   0.00000
 This molecule is an asymmetric top.
 Rotational symmetry number  2.
 Rotational temperatures (Kelvin)     15.15973    13.05722     7.01507
 Rotational constants (GHZ):         315.87791   272.06862   146.17055
 Zero-point vibrational energy      49088.1 (Joules/Mol)
                                   11.73235 (Kcal/Mol)
 Vibrational temperatures:   2316.03  4711.41  4780.44
          (Kelvin)

 Zero-point correction=                           0.018697 (Hartree/Particle)
 Thermal correction to Energy=                    0.021532
 Thermal correction to Enthalpy=                  0.022477
 Thermal correction to Gibbs Free Energy=        -0.000825
 Sum of electronic and zero-point Energies=           -394.292933
 Sum of electronic and thermal Energies=              -394.290098
 Sum of electronic and thermal Enthalpies=            -394.289154
 Sum of electronic and thermal Free Energies=         -394.312455

                     E (Thermal)             CV                S
                      KCal/Mol        Cal/Mol-Kelvin    Cal/Mol-Kelvin
 Total                   13.512              6.013             49.043
 Electronic               0.000              0.000              0.000
 Translational            0.889              2.981             36.501
 Rotational               0.889              2.981             12.534
 Vibrational             11.734              0.051              0.007

 Optimization completed.
    -- Stationary point found.
 Normal termination of Gaussian 09 at Tue Sep  4 18:12:41 2018.
