 Gaussian 09, Revision C.01,
 Gaussian 09:  EM64L-G09RevC.01 23-Sep-2011

 -------------------
 #HF STO-3G opt freq
 -------------------

 99/9=1/99;
 ------------------------
 Water Dimer Optimization
 ------------------------
 Charge =  0 Multiplicity = 1

 SCF Done:  E(RHF) =  -149.935321708     A.U. after    9 cycles
 SCF Done:  E(RHF) =  -149.938459036     A.U. after   10 cycles
 SCF Done:  E(RHF) =  -149.939190164     A.U. after    9 cycles
 SCF Done:  E(RHF) =  -149.939575123     A.U. after   10 cycles
 SCF Done:  E(RHF) =  -149.939853186     A.U. after   11 cycles
 SCF Done:  E(RHF) =  -149.940098826     A.U. after    9 cycles
 SCF Done:  E(RHF) =  -149.940438280     A.U. after   10 cycles
 SCF Done:  E(RHF) =  -149.938813186     A.U. after   11 cycles
 SCF Done:  E(RHF) =  -149.940794179     A.U. after   10 cycles
 SCF Done:  E(RHF) =  -149.940507802     A.U. after   10 cycles
 SCF Done:  E(RHF) =  -149.940850172     A.U. after   10 cycles
 SCF Done:  E(RHF) =  -149.940868545     A.U. after    8 cycles
 SCF Done:  E(RHF) =  -149.940907228     A.U. after    8 cycles
 SCF Done:  E(RHF) =  -149.941076417     A.U. after    9 cycles
 SCF Done:  E(RHF) =  -149.941226900     A.U. after   10 cycles
 SCF Done:  E(RHF) =  -149.941241218     A.U. after    9 cycles
 SCF Done:  E(RHF) =  -149.941244334     A.U. after    8 cycles
 Optimization completed.
    -- Stationary point found.
 Normal termination of Gaussian 09 at Sat Sep  1 15:55:35 2018.

 ---------------------------------------------------------------
 #N Geom=AllCheck Guess=TCheck SCRF=Check GenChk RHF/STO-3G Freq
 ---------------------------------------------------------------

 Structure from the checkpoint file:  /scratch/cn410101.133956/Gau-61316.chk
 ------------------------
 Water Dimer Optimization
 ------------------------
 Charge =  0 Multiplicity = 1

                         Standard orientation:
 ---------------------------------------------------------------------
 Center     Atomic      Atomic             Coordinates (Angstroms)
 Number     Number       Type             X           Y           Z
 ---------------------------------------------------------------------
      1          1           0       -0.974791   -1.626724    0.000000
      2          8           0       -0.003422   -1.445401    0.000000
      3          1           0       -0.006618   -0.455816    0.000000
      4          8           0       -0.003422    1.294460    0.000000
      5          1           0        0.518082    1.645034    0.761129
      6          1           0        0.518082    1.645034   -0.761129
 ---------------------------------------------------------------------

 SCF Done:  E(RHF) =  -149.941244334     A.U. after    1 cycles

 The electronic state is 1-A'.
 Alpha  occ. eigenvalues --  -20.29427 -20.18607  -1.29697  -1.21294  -0.63149
 Alpha  occ. eigenvalues --   -0.57647  -0.49414  -0.44242  -0.38879  -0.34706
 Alpha virt. eigenvalues --    0.54231   0.65436   0.66396   0.78174

 Mulliken atomic charges:
              1
     1  H    0.141326
     2  O   -0.382799
     3  H    0.196412
     4  O   -0.333447
     5  H    0.189254
     6  H    0.189254
 Sum of Mulliken atomic charges =   0.00000

 Dipole moment (field-independent basis, Debye):
    X=              0.3109    Y=              2.8069    Z=              0.0000  Tot=              2.8241
 Quadrupole moment (field-independent basis, Debye-Ang):
   XX=            -10.0499   YY=            -11.3690   ZZ=            -10.4392
   XY=              4.5040   XZ=              0.0000   YZ=              0.0000

  Exact polarizability:   5.619   3.103   6.477   0.000   0.000   5.431
 Approx polarizability:   4.878   1.875   4.791   0.000   0.000   3.890

                     1                      2                      3
                    A"                     A'                     A'
 Frequencies --   115.3645               243.1368               281.1907
 Red. masses --     1.0478                 1.5063                 2.2903
 Frc consts  --     0.0082                 0.0525                 0.1067
 IR Inten    --   108.6781                62.8295               127.2909
 Raman Activ --    10.9404                 0.3936                 0.5194

                     4                      5                      6
                    A"                     A'                     A"
 Frequencies --   288.8511               472.5608               735.4725
 Red. masses --     1.0531                 1.1415                 1.0458
 Frc consts  --     0.0518                 0.1502                 0.3333
 IR Inten    --     0.8816                79.0408               122.4530
 Raman Activ --    13.1327                 6.3263                 0.9673

                     7                      8                      9
                    A'                     A'                     A'
 Frequencies --  2147.5352              2201.4159              4133.8626
 Red. masses --     1.0811                 1.0738                 1.0484
 Frc consts  --     2.9376                 3.0662                10.5553
 IR Inten    --    12.6250                12.6614               179.7635
 Raman Activ --    11.1161                 6.6100                80.8872

                    10                     11                     12
                    A'                     A'                     A"
 Frequencies --  4172.3105              4377.7997              4417.8570
 Red. masses --     1.0491                 1.0770                 1.0781
 Frc consts  --    10.7598                12.1608                12.3976
 IR Inten    --    18.6044                70.2485                10.2944
 Raman Activ --    56.1058                35.2204                25.5594

 - Thermochemistry -
 -------------------
 Temperature   298.150 Kelvin.  Pressure   1.00000 Atm.
 Atom     1 has atomic number  1 and mass   1.00783

 Molecular mass:    36.02113 amu.
 Principal axes and moments of inertia in atomic units:
                           1         2         3
     Eigenvalues --     8.93510 249.40774 250.00296
           X            0.04944   0.99878   0.00000
           Y            0.99878  -0.04944   0.00000
           Z            0.00000   0.00000   1.00000
 This molecule is an asymmetric top.
 Rotational symmetry number  1.
 Rotational temperatures (Kelvin)      9.69366     0.34728     0.34645
 Rotational constants (GHZ):         201.98333     7.23611     7.21888
 Zero-point vibrational energy     141083.7 (Joules/Mol)
                                   33.71982 (Kcal/Mol)
 Warning -- explicit consideration of   5 degrees of freedom as
           vibrations may cause significant error
 Vibrational temperatures:    165.98   349.82   404.57   415.59   679.91
          (Kelvin)           1058.18  3089.82  3167.34  5947.70  6003.02
                             6298.67  6356.30

 Zero-point correction=                           0.053736 (Hartree/Particle)
 Thermal correction to Energy=                    0.058994
 Thermal correction to Enthalpy=                  0.059938
 Thermal correction to Gibbs Free Energy=         0.028301
 Sum of electronic and zero-point Energies=           -149.887508
 Sum of electronic and thermal Energies=              -149.882251
 Sum of electronic and thermal Enthalpies=            -149.881306
 Sum of electronic and thermal Free Energies=         -149.912943

                     E (Thermal)             CV                S
                      KCal/Mol        Cal/Mol-Kelvin    Cal/Mol-Kelvin
 Total                   37.019             15.161             66.585
 Electronic               0.000              0.000              0.000
 Translational            0.889              2.981             36.674
 Rotational               0.889              2.981             20.949
 Vibrational             35.242              9.200              8.962
 Vibration     1          0.608              1.937              3.177
 Vibration     2          0.659              1.774              1.780
 Vibration     3          0.681              1.708              1.526
 Vibration     4          0.685              1.694              1.481
 Vibration     5          0.829              1.311              0.730

 Optimization completed.
    -- Stationary point found.
 Normal termination of Gaussian 09 at Sat Sep  1 15:55:37 2018.
