 Gaussian 09, Revision C.01,
 Gaussian 09:  EM64L-G09RevC.01 23-Sep-2011

 -------------------
 #HF STO-3G opt freq
 -------------------

 99/9=1/99;
 ------------------
 Water optimization
 ------------------
 Charge =  0 Multiplicity = 1

 SCF Done:  E(RHF) =  -74.9648591206     A.U. after    7 cycles
 SCF Done:  E(RHF) =  -74.9652262986     A.U. after    6 cycles
 SCF Done:  E(RHF) =  -74.9659011302     A.U. after    6 cycles
 Optimization completed.
    -- Stationary point found.
 Normal termination of Gaussian 09 at Sat Sep  1 14:53:28 2018.

 ---------------------------------------------------------------
 #N Geom=AllCheck Guess=TCheck SCRF=Check GenChk RHF/STO-3G Freq
 ---------------------------------------------------------------

 Structure from the checkpoint file:  /scratch/cn410101.133863/Gau-50575.chk
 ------------------
 Water optimization
 ------------------
 Charge =  0 Multiplicity = 1

                         Standard orientation:
 ---------------------------------------------------------------------
 Center     Atomic      Atomic             Coordinates (Angstroms)
 Number     Number       Type             X           Y           Z
 ---------------------------------------------------------------------
      1          1           0        0.000000    0.758062   -0.508431
      2          8           0        0.000000    0.000000    0.127108
      3          1           0        0.000000   -0.758062   -0.508431
 ---------------------------------------------------------------------

 SCF Done:  E(RHF) =  -74.9659011302     A.U. after    1 cycles

 The electronic state is 1-A1.
 Alpha  occ. eigenvalues --  -20.25153  -1.25761  -0.59398  -0.45970  -0.39261
 Alpha virt. eigenvalues --    0.58193   0.69294

 Mulliken atomic charges:
              1
     1  H    0.165359
     2  O   -0.330719
     3  H    0.165359
 Sum of Mulliken atomic charges =   0.00000

 Dipole moment (field-independent basis, Debye):
    X=              0.0000    Y=              0.0000    Z=             -1.7093  Tot=              1.7093
 Quadrupole moment (field-independent basis, Debye-Ang):
   XX=             -6.1255   YY=             -4.4850   ZZ=             -5.3335
   XY=              0.0000   XZ=              0.0000   YZ=              0.0000

  Exact polarizability:   0.040   0.000   5.506   0.000   0.000   2.563
 Approx polarizability:   0.020   0.000   3.937   0.000   0.000   2.604

                     1                      2                      3
                    A1                     A1                     B2
 Frequencies --  2169.5393              4141.9619              4393.2906
 Red. masses --     1.0785                 1.0491                 1.0774
 Frc consts  --     2.9909                10.6041                12.2518
 IR Inten    --     7.2555                44.2566                29.9189
 Raman Activ --     9.2612                47.7942                21.5321

 - Thermochemistry -
 -------------------
 Temperature   298.150 Kelvin.  Pressure   1.00000 Atm.
 Atom     1 has atomic number  1 and mass   1.00783

 Molecular mass:    18.01056 amu.
 Principal axes and moments of inertia in atomic units:
                           1         2         3
     Eigenvalues --     2.58197   4.13640   6.71837
           X            0.00000   0.00000   1.00000
           Y            1.00000   0.00000   0.00000
           Z            0.00000   1.00000   0.00000
 This molecule is an asymmetric top.
 Rotational symmetry number  2.
 Rotational temperatures (Kelvin)     33.54563    20.93941    12.89209
 Rotational constants (GHZ):         698.97831   436.30713   268.62779
 Zero-point vibrational energy      64028.9 (Joules/Mol)
                                   15.30327 (Kcal/Mol)
 Vibrational temperatures:   3121.48  5959.35  6320.96
          (Kelvin)

 Zero-point correction=                           0.024387 (Hartree/Particle)
 Thermal correction to Energy=                    0.027220
 Thermal correction to Enthalpy=                  0.028164
 Thermal correction to Gibbs Free Energy=         0.006650
 Sum of electronic and zero-point Energies=            -74.941514
 Sum of electronic and thermal Energies=               -74.938681
 Sum of electronic and thermal Enthalpies=             -74.937737
 Sum of electronic and thermal Free Energies=          -74.959251

                     E (Thermal)             CV                S
                      KCal/Mol        Cal/Mol-Kelvin    Cal/Mol-Kelvin
 Total                   17.081              5.968             45.280
 Electronic               0.000              0.000              0.000
 Translational            0.889              2.981             34.608
 Rotational               0.889              2.981             10.671
 Vibrational             15.303              0.006              0.001

 Optimization completed.
    -- Stationary point found.
			 Normal termination of Gaussian 09 at Sat Sep  1 14:53:30 2018.
